ITEM: TIMESTEP
0
ITEM: NUMBER OF ATOMS
420
ITEM: BOX BOUNDS
0 22.6539
-0.0001 19.619
-0.283174 0.283174
ITEM: ATOMS
1 2 0 5.09708e-06 0.5
2 2 0.025 0.0500046 0.5
3 2 0.05 5.09708e-06 0.5
4 2 0.075 0.0500046 0.5
5 2 0.1 5.09708e-06 0.5
6 2 0.125 0.0500046 0.5
7 2 0.15 5.09708e-06 0.5
8 2 0.175 0.0500046 0.5
9 2 0.2 5.09708e-06 0.5
10 2 0.225 0.0500046 0.5
11 2 0.25 5.09708e-06 0.5
12 2 0.275 0.0500046 0.5
13 2 0.3 5.09708e-06 0.5
14 2 0.325 0.0500046 0.5
15 2 0.35 5.09708e-06 0.5
16 2 0.375 0.0500046 0.5
17 2 0.4 5.09708e-06 0.5
18 2 0.425 0.0500046 0.5
19 2 0.45 5.09708e-06 0.5
20 2 0.475 0.0500046 0.5
21 2 0.5 5.09708e-06 0.5
22 2 0.525 0.0500046 0.5
23 2 0.55 5.09708e-06 0.5
24 2 0.575 0.0500046 0.5
25 2 0.6 5.09708e-06 0.5
26 2 0.625 0.0500046 0.5
27 2 0.65 5.09708e-06 0.5
28 2 0.675 0.0500046 0.5
29 2 0.7 5.09708e-06 0.5
30 2 0.725 0.0500046 0.5
31 2 0.75 5.09708e-06 0.5
32 2 0.775 0.0500046 0.5
33 2 0.8 5.09708e-06 0.5
34 2 0.825 0.0500046 0.5
35 2 0.85 5.09708e-06 0.5
36 2 0.875 0.0500046 0.5
37 2 0.9 5.09708e-06 0.5
38 2 0.925 0.0500046 0.5
39 2 0.95 5.09708e-06 0.5
40 2 0.975 0.0500046 0.5
41 2 0 0.100004 0.5
42 1 0.025 0.150004 0.5
43 2 0.05 0.100004 0.5
44 1 0.075 0.150004 0.5
45 2 0.1 0.100004 0.5
46 1 0.125 0.150004 0.5
47 2 0.15 0.100004 0.5
48 1 0.175 0.150004 0.5
49 2 0.2 0.100004 0.5
50 1 0.225 0.150004 0.5
51 2 0.25 0.100004 0.5
52 1 0.275 0.150004 0.5
53 2 0.3 0.100004 0.5
54 1 0.325 0.150004 0.5
55 2 0.35 0.100004 0.5
56 1 0.375 0.150004 0.5
57 2 0.4 0.100004 0.5
58 1 0.425 0.150004 0.5
59 2 0.45 0.100004 0.5
60 1 0.475 0.150004 0.5
61 2 0.5 0.100004 0.5
62 1 0.525 0.150004 0.5
63 2 0.55 0.100004 0.5
64 1 0.575 0.150004 0.5
65 2 0.6 0.100004 0.5
66 1 0.625 0.150004 0.5
67 2 0.65 0.100004 0.5
68 1 0.675 0.150004 0.5
69 2 0.7 0.100004 0.5
70 1 0.725 0.150004 0.5
71 2 0.75 0.100004 0.5
72 1 0.775 0.150004 0.5
73 2 0.8 0.100004 0.5
74 1 0.825 0.150004 0.5
75 2 0.85 0.100004 0.5
76 1 0.875 0.150004 0.5
77 2 0.9 0.100004 0.5
78 1 0.925 0.150004 0.5
79 2 0.95 0.100004 0.5
80 1 0.975 0.150004 0.5
81 1 0 0.200003 0.5
82 1 0.025 0.250003 0.5
83 1 0.05 0.200003 0.5
84 1 0.075 0.250003 0.5
85 1 0.1 0.200003 0.5
86 1 0.125 0.250003 0.5
87 1 0.15 0.200003 0.5
88 1 0.175 0.250003 0.5
89 1 0.2 0.200003 0.5
90 1 0.225 0.250003 0.5
91 1 0.25 0.200003 0.5
92 1 0.275 0.250003 0.5
93 1 0.3 0.200003 0.5
94 1 0.325 0.250003 0.5
95 1 0.35 0.200003 0.5
96 1 0.375 0.250003 0.5
97 1 0.4 0.200003 0.5
98 1 0.425 0.250003 0.5
99 1 0.45 0.200003 0.5
100 1 0.475 0.250003 0.5
101 1 0.5 0.200003 0.5
102 1 0.525 0.250003 0.5
103 1 0.55 0.200003 0.5
104 1 0.575 0.250003 0.5
105 1 0.6 0.200003 0.5
106 1 0.625 0.250003 0.5
107 1 0.65 0.200003 0.5
108 1 0.675 0.250003 0.5
109 1 0.7 0.200003 0.5
110 1 0.725 0.250003 0.5
111 1 0.75 0.200003 0.5
112 1 0.775 0.250003 0.5
113 1 0.8 0.200003 0.5
114 1 0.825 0.250003 0.5
115 1 0.85 0.200003 0.5
116 1 0.875 0.250003 0.5
117 1 0.9 0.200003 0.5
118 1 0.925 0.250003 0.5
119 1 0.95 0.200003 0.5
120 1 0.975 0.250003 0.5
121 1 0 0.300002 0.5
122 1 0.025 0.350002 0.5
123 1 0.05 0.300002 0.5
124 1 0.075 0.350002 0.5
125 1 0.1 0.300002 0.5
126 1 0.125 0.350002 0.5
127 1 0.15 0.300002 0.5
128 1 0.175 0.350002 0.5
129 1 0.2 0.300002 0.5
130 1 0.225 0.350002 0.5
131 1 0.25 0.300002 0.5
132 1 0.275 0.350002 0.5
133 1 0.3 0.300002 0.5
134 1 0.325 0.350002 0.5
135 1 0.35 0.300002 0.5
136 1 0.375 0.350002 0.5
137 1 0.4 0.300002 0.5
138 1 0.425 0.350002 0.5
139 1 0.45 0.300002 0.5
140 1 0.475 0.350002 0.5
141 1 0.5 0.300002 0.5
142 1 0.525 0.350002 0.5
143 1 0.55 0.300002 0.5
144 1 0.575 0.350002 0.5
145 1 0.6 0.300002 0.5
146 1 0.625 0.350002 0.5
147 1 0.65 0.300002 0.5
148 1 0.675 0.350002 0.5
149 1 0.7 0.300002 0.5
150 1 0.725 0.350002 0.5
151 1 0.75 0.300002 0.5
152 1 0.775 0.350002 0.5
153 1 0.8 0.300002 0.5
154 1 0.825 0.350002 0.5
155 1 0.85 0.300002 0.5
156 1 0.875 0.350002 0.5
157 1 0.9 0.300002 0.5
158 1 0.925 0.350002 0.5
159 1 0.95 0.300002 0.5
160 1 0.975 0.350002 0.5
161 1 0 0.400001 0.5
162 1 0.025 0.450001 0.5
163 1 0.05 0.400001 0.5
164 1 0.075 0.450001 0.5
165 1 0.1 0.400001 0.5
166 1 0.125 0.450001 0.5
167 1 0.15 0.400001 0.5
168 1 0.175 0.450001 0.5
169 1 0.2 0.400001 0.5
170 1 0.225 0.450001 0.5
171 1 0.25 0.400001 0.5
172 1 0.275 0.450001 0.5
173 1 0.3 0.400001 0.5
174 1 0.325 0.450001 0.5
175 1 0.35 0.400001 0.5
176 1 0.375 0.450001 0.5
177 1 0.4 0.400001 0.5
178 1 0.425 0.450001 0.5
179 1 0.45 0.400001 0.5
180 1 0.475 0.450001 0.5
181 1 0.5 0.400001 0.5
182 1 0.525 0.450001 0.5
183 1 0.55 0.400001 0.5
184 1 0.575 0.450001 0.5
185 1 0.6 0.400001 0.5
186 1 0.625 0.450001 0.5
187 1 0.65 0.400001 0.5
188 1 0.675 0.450001 0.5
189 1 0.7 0.400001 0.5
190 1 0.725 0.450001 0.5
191 1 0.75 0.400001 0.5
192 1 0.775 0.450001 0.5
193 1 0.8 0.400001 0.5
194 1 0.825 0.450001 0.5
195 1 0.85 0.400001 0.5
196 1 0.875 0.450001 0.5
197 1 0.9 0.400001 0.5
198 1 0.925 0.450001 0.5
199 1 0.95 0.400001 0.5
200 1 0.975 0.450001 0.5
201 1 0 0.5 0.5
202 1 0.025 0.549999 0.5
203 1 0.05 0.5 0.5
204 1 0.075 0.549999 0.5
205 1 0.1 0.5 0.5
206 1 0.125 0.549999 0.5
207 1 0.15 0.5 0.5
208 1 0.175 0.549999 0.5
209 1 0.2 0.5 0.5
210 1 0.225 0.549999 0.5
211 1 0.25 0.5 0.5
212 1 0.275 0.549999 0.5
213 1 0.3 0.5 0.5
214 1 0.325 0.549999 0.5
215 1 0.35 0.5 0.5
216 1 0.375 0.549999 0.5
217 1 0.4 0.5 0.5
218 1 0.425 0.549999 0.5
219 1 0.45 0.5 0.5
220 1 0.475 0.549999 0.5
221 1 0.5 0.5 0.5
222 1 0.525 0.549999 0.5
223 1 0.55 0.5 0.5
224 1 0.575 0.549999 0.5
225 1 0.6 0.5 0.5
226 1 0.625 0.549999 0.5
227 1 0.65 0.5 0.5
228 1 0.675 0.549999 0.5
229 1 0.7 0.5 0.5
230 1 0.725 0.549999 0.5
231 1 0.75 0.5 0.5
232 1 0.775 0.549999 0.5
233 1 0.8 0.5 0.5
234 1 0.825 0.549999 0.5
235 1 0.85 0.5 0.5
236 1 0.875 0.549999 0.5
237 1 0.9 0.5 0.5
238 1 0.925 0.549999 0.5
239 1 0.95 0.5 0.5
240 1 0.975 0.549999 0.5
241 1 0 0.599999 0.5
242 1 0.025 0.649998 0.5
243 1 0.05 0.599999 0.5
244 1 0.075 0.649998 0.5
245 1 0.1 0.599999 0.5
246 1 0.125 0.649998 0.5
247 1 0.15 0.599999 0.5
248 1 0.175 0.649998 0.5
249 1 0.2 0.599999 0.5
250 1 0.225 0.649998 0.5
251 1 0.25 0.599999 0.5
252 1 0.275 0.649998 0.5
253 1 0.3 0.599999 0.5
254 1 0.325 0.649998 0.5
255 1 0.35 0.599999 0.5
256 1 0.375 0.649998 0.5
257 1 0.4 0.599999 0.5
258 1 0.425 0.649998 0.5
259 1 0.45 0.599999 0.5
260 1 0.475 0.649998 0.5
261 1 0.5 0.599999 0.5
262 1 0.525 0.649998 0.5
263 1 0.55 0.599999 0.5
264 1 0.575 0.649998 0.5
265 1 0.6 0.599999 0.5
266 1 0.625 0.649998 0.5
267 1 0.65 0.599999 0.5
268 1 0.675 0.649998 0.5
269 1 0.7 0.599999 0.5
270 1 0.725 0.649998 0.5
271 1 0.75 0.599999 0.5
272 1 0.775 0.649998 0.5
273 1 0.8 0.599999 0.5
274 1 0.825 0.649998 0.5
275 1 0.85 0.599999 0.5
276 1 0.875 0.649998 0.5
277 1 0.9 0.599999 0.5
278 1 0.925 0.649998 0.5
279 1 0.95 0.599999 0.5
280 1 0.975 0.649998 0.5
281 1 0 0.699998 0.5
282 1 0.025 0.749997 0.5
283 1 0.05 0.699998 0.5
284 1 0.075 0.749997 0.5
285 1 0.1 0.699998 0.5
286 1 0.125 0.749997 0.5
287 1 0.15 0.699998 0.5
288 1 0.175 0.749997 0.5
289 1 0.2 0.699998 0.5
290 1 0.225 0.749997 0.5
291 1 0.25 0.699998 0.5
292 1 0.275 0.749997 0.5
293 1 0.3 0.699998 0.5
294 1 0.325 0.749997 0.5
295 1 0.35 0.699998 0.5
296 1 0.375 0.749997 0.5
297 1 0.4 0.699998 0.5
298 1 0.425 0.749997 0.5
299 1 0.45 0.699998 0.5
300 1 0.475 0.749997 0.5
301 1 0.5 0.699998 0.5
302 1 0.525 0.749997 0.5
303 1 0.55 0.699998 0.5
304 1 0.575 0.749997 0.5
305 1 0.6 0.699998 0.5
306 1 0.625 0.749997 0.5
307 1 0.65 0.699998 0.5
308 1 0.675 0.749997 0.5
309 1 0.7 0.699998 0.5
310 1 0.725 0.749997 0.5
311 1 0.75 0.699998 0.5
312 1 0.775 0.749997 0.5
313 1 0.8 0.699998 0.5
314 1 0.825 0.749997 0.5
315 1 0.85 0.699998 0.5
316 1 0.875 0.749997 0.5
317 1 0.9 0.699998 0.5
318 1 0.925 0.749997 0.5
319 1 0.95 0.699998 0.5
320 1 0.975 0.749997 0.5
321 1 0 0.799997 0.5
322 1 0.025 0.849996 0.5
323 1 0.05 0.799997 0.5
324 1 0.075 0.849996 0.5
325 1 0.1 0.799997 0.5
326 1 0.125 0.849996 0.5
327 1 0.15 0.799997 0.5
328 1 0.175 0.849996 0.5
329 1 0.2 0.799997 0.5
330 1 0.225 0.849996 0.5
331 1 0.25 0.799997 0.5
332 1 0.275 0.849996 0.5
333 1 0.3 0.799997 0.5
334 1 0.325 0.849996 0.5
335 1 0.35 0.799997 0.5
336 1 0.375 0.849996 0.5
337 1 0.4 0.799997 0.5
338 1 0.425 0.849996 0.5
339 1 0.45 0.799997 0.5
340 1 0.475 0.849996 0.5
341 1 0.5 0.799997 0.5
342 1 0.525 0.849996 0.5
343 1 0.55 0.799997 0.5
344 1 0.575 0.849996 0.5
345 1 0.6 0.799997 0.5
346 1 0.625 0.849996 0.5
347 1 0.65 0.799997 0.5
348 1 0.675 0.849996 0.5
349 1 0.7 0.799997 0.5
350 1 0.725 0.849996 0.5
351 1 0.75 0.799997 0.5
352 1 0.775 0.849996 0.5
353 1 0.8 0.799997 0.5
354 1 0.825 0.849996 0.5
355 1 0.85 0.799997 0.5
356 1 0.875 0.849996 0.5
357 1 0.9 0.799997 0.5
358 1 0.925 0.849996 0.5
359 1 0.95 0.799997 0.5
360 1 0.975 0.849996 0.5
361 1 0 0.899996 0.5
362 1 0.025 0.949995 0.5
363 1 0.05 0.899996 0.5
364 1 0.075 0.949995 0.5
365 1 0.1 0.899996 0.5
366 1 0.125 0.949995 0.5
367 1 0.15 0.899996 0.5
368 1 0.175 0.949995 0.5
369 1 0.2 0.899996 0.5
370 1 0.225 0.949995 0.5
371 1 0.25 0.899996 0.5
372 1 0.275 0.949995 0.5
373 1 0.3 0.899996 0.5
374 1 0.325 0.949995 0.5
375 1 0.35 0.899996 0.5
376 1 0.375 0.949995 0.5
377 1 0.4 0.899996 0.5
378 1 0.425 0.949995 0.5
379 1 0.45 0.899996 0.5
380 1 0.475 0.949995 0.5
381 1 0.5 0.899996 0.5
382 1 0.525 0.949995 0.5
383 1 0.55 0.899996 0.5
384 1 0.575 0.949995 0.5
385 1 0.6 0.899996 0.5
386 1 0.625 0.949995 0.5
387 1 0.65 0.899996 0.5
388 1 0.675 0.949995 0.5
389 1 0.7 0.899996 0.5
390 1 0.725 0.949995 0.5
391 1 0.75 0.899996 0.5
392 1 0.775 0.949995 0.5
393 1 0.8 0.899996 0.5
394 1 0.825 0.949995 0.5
395 1 0.85 0.899996 0.5
396 1 0.875 0.949995 0.5
397 1 0.9 0.899996 0.5
398 1 0.925 0.949995 0.5
399 1 0.95 0.899996 0.5
400 1 0.975 0.949995 0.5
401 1 0 0.999995 0.5
402 1 0.05 0.999995 0.5
403 1 0.1 0.999995 0.5
404 1 0.15 0.999995 0.5
405 1 0.2 0.999995 0.5
406 1 0.25 0.999995 0.5
407 1 0.3 0.999995 0.5
408 1 0.35 0.999995 0.5
409 1 0.4 0.999995 0.5
410 1 0.45 0.999995 0.5
411 1 0.5 0.999995 0.5
412 1 0.55 0.999995 0.5
413 1 0.6 0.999995 0.5
414 1 0.65 0.999995 0.5
415 1 0.7 0.999995 0.5
416 1 0.75 0.999995 0.5
417 1 0.8 0.999995 0.5
418 1 0.85 0.999995 0.5
419 1 0.9 0.999995 0.5
420 1 0.95 0.999995 0.5
ITEM: TIMESTEP
250
ITEM: NUMBER OF ATOMS
420
ITEM: BOX BOUNDS
0 22.6539
-0.0001 19.7028
-0.283174 0.283174
ITEM: ATOMS
1 2 0 5.0754e-06 0.5
2 2 0.025 0.0497919 0.5
3 2 0.05 5.0754e-06 0.5
4 2 0.075 0.0497919 0.5
5 2 0.1 5.0754e-06 0.5
6 2 0.125 0.0497919 0.5
7 2 0.15 5.0754e-06 0.5
8 2 0.175 0.0497919 0.5
9 2 0.2 5.0754e-06 0.5
10 2 0.225 0.0497919 0.5
11 2 0.25 5.0754e-06 0.5
12 2 0.275 0.0497919 0.5
13 2 0.3 5.0754e-06 0.5
14 2 0.325 0.0497919 0.5
15 2 0.35 5.0754e-06 0.5
16 2 0.375 0.0497919 0.5
17 2 0.4 5.0754e-06 0.5
18 2 0.425 0.0497919 0.5
19 2 0.45 5.0754e-06 0.5
20 2 0.475 0.0497919 0.5
21 2 0.5 5.0754e-06 0.5
22 2 0.525 0.0497919 0.5
23 2 0.55 5.0754e-06 0.5
24 2 0.575 0.0497919 0.5
25 2 0.6 5.0754e-06 0.5
26 2 0.625 0.0497919 0.5
27 2 0.65 5.0754e-06 0.5
28 2 0.675 0.0497919 0.5
29 2 0.7 5.0754e-06 0.5
30 2 0.725 0.0497919 0.5
31 2 0.75 5.0754e-06 0.5
32 2 0.775 0.0497919 0.5
33 2 0.8 5.0754e-06 0.5
34 2 0.825 0.0497919 0.5
35 2 0.85 5.0754e-06 0.5
36 2 0.875 0.0497919 0.5
37 2 0.9 5.0754e-06 0.5
38 2 0.925 0.0497919 0.5
39 2 0.95 5.0754e-06 0.5
40 2 0.975 0.0497919 0.5
41 2 0 0.0995788 0.5
42 1 0.0246736 0.148905 0.5
43 2 0.05 0.0995788 0.5
44 1 0.0729369 0.147323 0.5
45 2 0.1 0.0995788 0.5
46 1 0.123613 0.152741 0.5
47 2 0.15 0.0995788 0.5
48 1 0.173227 0.14873 0.5
49 2 0.2 0.0995788 0.5
50 1 0.223918 0.149096 0.5
51 2 0.25 0.0995788 0.5
52 1 0.272036 0.149378 0.5
53 2 0.3 0.0995788 0.5
54 1 0.321836 0.148855 0.5
55 2 0.35 0.0995788 0.5
56 1 0.374813 0.14843 0.5
57 2 0.4 0.0995788 0.5
58 1 0.42371 0.147196 0.5
59 2 0.45 0.0995788 0.5
60 1 0.473917 0.147385 0.5
61 2 0.5 0.0995788 0.5
62 1 0.523402 0.147181 0.5
63 2 0.55 0.0995788 0.5
64 1 0.574058 0.149048 0.5
65 2 0.6 0.0995788 0.5
66 1 0.625616 0.151052 0.5
67 2 0.65 0.0995788 0.5
68 1 0.674482 0.151519 0.5
69 2 0.7 0.0995788 0.5
70 1 0.724261 0.148424 0.5
71 2 0.75 0.0995788 0.5
72 1 0.77291 0.14757 0.5
73 2 0.8 0.0995788 0.5
74 1 0.823478 0.150473 0.5
75 2 0.85 0.0995788 0.5
76 1 0.875079 0.148231 0.5
77 2 0.9 0.0995788 0.5
78 1 0.924871 0.151943 0.5
79 2 0.95 0.0995788 0.5
80 1 0.974337 0.148987 0.5
81 1 0.997647 0.200381 0.5
82 1 0.0244182 0.248734 0.5
83 1 0.0452249 0.199423 0.5
84 1 0.0741073 0.247789 0.5
85 1 0.0985294 0.201885 0.5
86 1 0.123715 0.250669 0.5
87 1 0.148538 0.200213 0.5
88 1 0.174262 0.249246 0.5
89 1 0.199061 0.200695 0.5
90 1 0.222727 0.252895 0.5
91 1 0.247931 0.199172 0.5
92 1 0.274049 0.248116 0.5
93 1 0.298803 0.199257 0.5
94 1 0.327089 0.247007 0.5
95 1 0.347467 0.195632 0.5
96 1 0.377342 0.245894 0.5
97 1 0.401618 0.197972 0.5
98 1 0.42501 0.248881 0.5
99 1 0.450174 0.196169 0.5
100 1 0.474824 0.246149 0.5
101 1 0.499458 0.19782 0.5
102 1 0.525677 0.248743 0.5
103 1 0.547319 0.199609 0.5
104 1 0.575375 0.2484 0.5
105 1 0.597047 0.198128 0.5
106 1 0.621837 0.248756 0.5
107 1 0.6499 0.200046 0.5
108 1 0.672474 0.249898 0.5
109 1 0.699012 0.200051 0.5
110 1 0.72347 0.249513 0.5
111 1 0.748371 0.199261 0.5
112 1 0.774668 0.251572 0.5
113 1 0.799248 0.199656 0.5
114 1 0.823168 0.251108 0.5
115 1 0.847902 0.202296 0.5
116 1 0.873299 0.252281 0.5
117 1 0.89666 0.199675 0.5
118 1 0.923069 0.244372 0.5
119 1 0.950109 0.197853 0.5
120 1 0.975194 0.247496 0.5
121 1 0.997456 0.299431 0.5
122 1 0.0224842 0.3543 0.5
123 1 0.0478713 0.298581 0.5
124 1 0.0733883 0.348161 0.5
125 1 0.0996131 0.299363 0.5
126 1 0.126668 0.348063 0.5
127 1 0.149289 0.299566 0.5
128 1 0.175315 0.351397 0.5
129 1 0.19787 0.297799 0.5
130 1 0.223371 0.351012 0.5
131 1 0.250576 0.297359 0.5
132 1 0.272313 0.349123 0.5
133 1 0.29862 0.297754 0.5
134 1 0.321886 0.345482 0.5
135 1 0.348885 0.299905 0.5
136 1 0.373152 0.351512 0.5
137 1 0.398811 0.296936 0.5
138 1 0.422163 0.346994 0.5
139 1 0.448437 0.297925 0.5
140 1 0.474712 0.34886 0.5
141 1 0.499312 0.296202 0.5
142 1 0.525022 0.347709 0.5
143 1 0.549548 0.2976 0.5
144 1 0.573581 0.34736 0.5
145 1 0.599355 0.300157 0.5
146 1 0.625605 0.348315 0.5
147 1 0.64885 0.299932 0.5
148 1 0.674853 0.350201 0.5
149 1 0.697062 0.300253 0.5
150 1 0.722203 0.35034 0.5
151 1 0.745712 0.299255 0.5
152 1 0.772361 0.351555 0.5
153 1 0.797562 0.302094 0.5
154 1 0.821506 0.350247 0.5
155 1 0.846839 0.300823 0.5
156 1 0.872647 0.347897 0.5
157 1 0.901323 0.294889 0.5
158 1 0.921086 0.348147 0.5
159 1 0.948777 0.295931 0.5
160 1 0.973307 0.351099 0.5
161 1 0.995789 0.403235 0.5
162 1 0.0219898 0.448929 0.5
163 1 0.0481921 0.398652 0.5
164 1 0.0729778 0.447467 0.5
165 1 0.0981963 0.395997 0.5
166 1 0.12464 0.44806 0.5
167 1 0.148292 0.400247 0.5
168 1 0.175577 0.449127 0.5
169 1 0.198015 0.399839 0.5
170 1 0.225894 0.447059 0.5
171 1 0.250719 0.400921 0.5
172 1 0.275351 0.448105 0.5
173 1 0.30033 0.394855 0.5
174 1 0.323171 0.444214 0.5
175 1 0.350537 0.399174 0.5
176 1 0.379014 0.449557 0.5
177 1 0.400264 0.397384 0.5
178 1 0.428259 0.449104 0.5
179 1 0.448377 0.397742 0.5
180 1 0.477694 0.44958 0.5
181 1 0.498384 0.39768 0.5
182 1 0.526501 0.444752 0.5
183 1 0.547325 0.396823 0.5
184 1 0.575971 0.44729 0.5
185 1 0.598341 0.399487 0.5
186 1 0.624864 0.447579 0.5
187 1 0.6516 0.400575 0.5
188 1 0.673926 0.449341 0.5
189 1 0.699736 0.40149 0.5
190 1 0.725626 0.447938 0.5
191 1 0.74831 0.397842 0.5
192 1 0.7732 0.447361 0.5
193 1 0.799425 0.400295 0.5
194 1 0.822534 0.449301 0.5
195 1 0.849189 0.397551 0.5
196 1 0.870757 0.448215 0.5
197 1 0.897285 0.400595 0.5
198 1 0.921979 0.449528 0.5
199 1 0.94691 0.398251 0.5
200 1 0.970267 0.448758 0.5
201 1 0.995376 0.497818 0.5
202 1 0.0236613 0.54881 0.5
203 1 0.0470286 0.496783 0.5
204 1 0.0719132 0.549104 0.5
205 1 0.0976377 0.499511 0.5
206 1 0.120979 0.547985 0.5
207 1 0.149349 0.497134 0.5
208 1 0.173479 0.546611 0.5
209 1 0.20095 0.498729 0.5
210 1 0.224606 0.548348 0.5
211 1 0.250074 0.499415 0.5
212 1 0.276688 0.547225 0.5
213 1 0.30056 0.49538 0.5
214 1 0.325273 0.545525 0.5
215 1 0.35019 0.49732 0.5
216 1 0.378041 0.547978 0.5
217 1 0.402779 0.4981 0.5
218 1 0.42719 0.549385 0.5
219 1 0.451813 0.501733 0.5
220 1 0.478283 0.553122 0.5
221 1 0.503803 0.49577 0.5
222 1 0.523856 0.550202 0.5
223 1 0.550862 0.498649 0.5
224 1 0.57487 0.546237 0.5
225 1 0.59841 0.498158 0.5
226 1 0.62392 0.547278 0.5
227 1 0.648518 0.498356 0.5
228 1 0.673623 0.545517 0.5
229 1 0.699064 0.497528 0.5
230 1 0.722107 0.545384 0.5
231 1 0.749137 0.497557 0.5
232 1 0.774 0.548307 0.5
233 1 0.798578 0.496541 0.5
234 1 0.822144 0.547141 0.5
235 1 0.851512 0.50052 0.5
236 1 0.873284 0.552415 0.5
237 1 0.899145 0.501669 0.5
238 1 0.923665 0.550177 0.5
239 1 0.947989 0.499011 0.5
240 1 0.974539 0.546846 0.5
241 1 0.999606 0.599571 0.5
242 1 0.0217482 0.650403 0.5
243 1 0.0458051 0.599136 0.5
244 1 0.0724443 0.650503 0.5
245 1 0.0948711 0.601708 0.5
246 1 0.121772 0.647787 0.5
247 1 0.145236 0.597317 0.5
248 1 0.173824 0.647009 0.5
249 1 0.200201 0.597462 0.5
250 1 0.220946 0.64528 0.5
251 1 0.248606 0.596118 0.5
252 1 0.269925 0.645756 0.5
253 1 0.299545 0.599066 0.5
254 1 0.329016 0.644946 0.5
255 1 0.351261 0.594811 0.5
256 1 0.377051 0.646391 0.5
257 1 0.399911 0.596796 0.5
258 1 0.429586 0.65032 0.5
259 1 0.44807 0.599762 0.5
260 1 0.476779 0.648915 0.5
261 1 0.503147 0.601187 0.5
262 1 0.528671 0.645886 0.5
263 1 0.554746 0.596027 0.5
264 1 0.578205 0.644979 0.5
265 1 0.603821 0.594322 0.5
266 1 0.626157 0.646117 0.5
267 1 0.653061 0.595739 0.5
268 1 0.67735 0.648369 0.5
269 1 0.702427 0.598524 0.5
270 1 0.727412 0.648919 0.5
271 1 0.751248 0.596955 0.5
272 1 0.775067 0.644542 0.5
273 1 0.800103 0.596434 0.5
274 1 0.822727 0.643957 0.5
275 1 0.848106 0.596611 0.5
276 1 0.873137 0.645006 0.5
277 1 0.899808 0.598715 0.5
278 1 0.922774 0.647189 0.5
279 1 0.950096 0.5983 0.5
280 1 0.972445 0.647414 0.5
281 1 0.998421 0.699716 0.5
282 1 0.0255201 0.747475 0.5
283 1 0.0483747 0.698593 0.5
284 1 0.0765828 0.742839 0.5
285 1 0.0982818 0.696019 0.5
286 1 0.125115 0.743702 0.5
287 1 0.147769 0.696491 0.5
288 1 0.17373 0.744651 0.5
289 1 0.198399 0.69466 0.5
290 1 0.223867 0.743738 0.5
291 1 0.248071 0.694973 0.5
292 1 0.272991 0.74314 0.5
293 1 0.302517 0.693147 0.5
294 1 0.322922 0.743472 0.5
295 1 0.353677 0.695337 0.5
296 1 0.377429 0.745911 0.5
297 1 0.40241 0.695525 0.5
298 1 0.425937 0.744379 0.5
299 1 0.453627 0.696339 0.5
300 1 0.479533 0.747273 0.5
301 1 0.500414 0.696073 0.5
302 1 0.526786 0.746233 0.5
303 1 0.552125 0.695122 0.5
304 1 0.57379 0.74676 0.5
305 1 0.601286 0.697555 0.5
306 1 0.624787 0.745545 0.5
307 1 0.652178 0.692849 0.5
308 1 0.672977 0.743499 0.5
309 1 0.701119 0.696581 0.5
310 1 0.725323 0.742835 0.5
311 1 0.750832 0.697031 0.5
312 1 0.775737 0.743993 0.5
313 1 0.799615 0.693088 0.5
314 1 0.822691 0.743727 0.5
315 1 0.848589 0.695189 0.5
316 1 0.87237 0.744383 0.5
317 1 0.899245 0.696491 0.5
318 1 0.924019 0.748846 0.5
319 1 0.947309 0.694312 0.5
320 1 0.973187 0.746595 0.5
321 1 1.00096 0.796153 0.5
322 1 0.027129 0.846514 0.5
323 1 0.0496676 0.79557 0.5
324 1 0.0764556 0.84046 0.5
325 1 0.100696 0.793537 0.5
326 1 0.12649 0.842857 0.5
327 1 0.153023 0.792792 0.5
328 1 0.174648 0.843885 0.5
329 1 0.201601 0.794276 0.5
330 1 0.224219 0.844814 0.5
331 1 0.249038 0.795019 0.5
332 1 0.274516 0.840085 0.5
333 1 0.29887 0.79284 0.5
334 1 0.325519 0.840477 0.5
335 1 0.350442 0.793588 0.5
336 1 0.373968 0.84263 0.5
337 1 0.401677 0.795266 0.5
338 1 0.427865 0.841646 0.5
339 1 0.453404 0.79323 0.5
340 1 0.477345 0.841994 0.5
341 1 0.504073 0.793823 0.5
342 1 0.525172 0.845684 0.5
343 1 0.551603 0.798003 0.5
344 1 0.575596 0.844687 0.5
345 1 0.598684 0.794459 0.5
346 1 0.62536 0.84221 0.5
347 1 0.648864 0.793629 0.5
348 1 0.674564 0.839566 0.5
349 1 0.699742 0.78898 0.5
350 1 0.723271 0.838216 0.5
351 1 0.751116 0.793338 0.5
352 1 0.772555 0.840237 0.5
353 1 0.802279 0.792841 0.5
354 1 0.821971 0.843075 0.5
355 1 0.850121 0.794139 0.5
356 1 0.874258 0.844993 0.5
357 1 0.897296 0.794872 0.5
358 1 0.924406 0.842965 0.5
359 1 0.950317 0.79631 0.5
360 1 0.976471 0.843798 0.5
361 1 0.00266765 0.893995 0.5
362 1 0.024606 0.946458 0.5
363 1 0.0527665 0.892698 0.5
364 1 0.073662 0.941035 0.5
365 1 0.100142 0.895579 0.5
366 1 0.124503 0.940625 0.5
367 1 0.149617 0.892518 0.5
368 1 0.174774 0.938939 0.5
369 1 0.203873 0.893358 0.5
370 1 0.228392 0.93945 0.5
371 1 0.2544 0.891282 0.5
372 1 0.278145 0.940856 0.5
373 1 0.300719 0.888274 0.5
374 1 0.326599 0.940076 0.5
375 1 0.351336 0.891357 0.5
376 1 0.378412 0.939117 0.5
377 1 0.404692 0.891486 0.5
378 1 0.425798 0.94191 0.5
379 1 0.453464 0.893682 0.5
380 1 0.476936 0.943057 0.5
381 1 0.501553 0.891197 0.5
382 1 0.52733 0.943371 0.5
383 1 0.5507 0.893071 0.5
384 1 0.578309 0.942919 0.5
385 1 0.601929 0.892854 0.5
386 1 0.627694 0.941808 0.5
387 1 0.649852 0.88956 0.5
388 1 0.675633 0.938101 0.5
389 1 0.699965 0.887538 0.5
390 1 0.722943 0.938363 0.5
391 1 0.749229 0.894671 0.5
392 1 0.776834 0.939056 0.5
393 1 0.799577 0.893229 0.5
394 1 0.824472 0.944116 0.5
395 1 0.848796 0.893854 0.5
396 1 0.874261 0.941974 0.5
397 1 0.899021 0.892579 0.5
398 1 0.922867 0.939979 0.5
399 1 0.952427 0.889886 0.5
400 1 0.975579 0.945936 0.5
401 1 0.00272447 0.996765 0.5
402 1 0.0531028 0.996434 0.5
403 1 0.103441 0.988465 0.5
404 1 0.152554 0.990906 0.5
405 1 0.206573 0.999245 0.5
406 1 0.25508 0.987707 0.5
407 1 0.304511 0.99411 0.5
408 1 0.353353 0.986439 0.5
409 1 0.402108 0.989872 0.5
410 1 0.451506 0.995557 0.5
411 1 0.50235 0.995169 0.5
412 1 0.554462 0.990132 0.5
413 1 0.603185 0.992244 0.5
414 1 0.655949 0.989337 0.5
415 1 0.702291 0.990993 0.5
416 1 0.74987 0.985409 0.5
417 1 0.798249 0.989791 0.5
418 1 0.850145 0.996165 0.5
419 1 0.899404 0.988564 0.5
420 1 0.948711 0.992479 0.5
ITEM: TIMESTEP
500
ITEM: NUMBER OF ATOMS
420
ITEM: BOX BOUNDS
0 22.6539
-0.0001 19.6265
-0.283174 0.283174
ITEM: ATOMS
1 2 0 5.09512e-06 0.5
2 2 0.025 0.0499853 0.5
3 2 0.05 5.09512e-06 0.5
4 2 0.075 0.0499853 0.5
5 2 0.1 5.09512e-06 0.5
6 2 0.125 0.0499853 0.5
7 2 0.15 5.09512e-06 0.5
8 2 0.175 0.0499853 0.5
9 2 0.2 5.09512e-06 0.5
10 2 0.225 0.0499853 0.5
11 2 0.25 5.09512e-06 0.5
12 2 0.275 0.0499853 0.5
13 2 0.3 5.09512e-06 0.5
14 2 0.325 0.0499853 0.5
15 2 0.35 5.09512e-06 0.5
16 2 0.375 0.0499853 0.5
17 2 0.4 5.09512e-06 0.5
18 2 0.425 0.0499853 0.5
19 2 0.45 5.09512e-06 0.5
20 2 0.475 0.0499853 0.5
21 2 0.5 5.09512e-06 0.5
22 2 0.525 0.0499853 0.5
23 2 0.55 5.09512e-06 0.5
24 2 0.575 0.0499853 0.5
25 2 0.6 5.09512e-06 0.5
26 2 0.625 0.0499853 0.5
27 2 0.65 5.09512e-06 0.5
28 2 0.675 0.0499853 0.5
29 2 0.7 5.09512e-06 0.5
30 2 0.725 0.0499853 0.5
31 2 0.75 5.09512e-06 0.5
32 2 0.775 0.0499853 0.5
33 2 0.8 5.09512e-06 0.5
34 2 0.825 0.0499853 0.5
35 2 0.85 5.09512e-06 0.5
36 2 0.875 0.0499853 0.5
37 2 0.9 5.09512e-06 0.5
38 2 0.925 0.0499853 0.5
39 2 0.95 5.09512e-06 0.5
40 2 0.975 0.0499853 0.5
41 2 0 0.0999656 0.5
42 1 0.0231134 0.14777 0.5
43 2 0.05 0.0999656 0.5
44 1 0.0722348 0.150587 0.5
45 2 0.1 0.0999656 0.5
46 1 0.126755 0.148469 0.5
47 2 0.15 0.0999656 0.5
48 1 0.175803 0.151356 0.5
49 2 0.2 0.0999656 0.5
50 1 0.225882 0.150047 0.5
51 2 0.25 0.0999656 0.5
52 1 0.273997 0.152898 0.5
53 2 0.3 0.0999656 0.5
54 1 0.322867 0.150315 0.5
55 2 0.35 0.0999656 0.5
56 1 0.370517 0.149775 0.5
57 2 0.4 0.0999656 0.5
58 1 0.424778 0.146769 0.5
59 2 0.45 0.0999656 0.5
60 1 0.474957 0.148911 0.5
61 2 0.5 0.0999656 0.5
62 1 0.522584 0.15064 0.5
63 2 0.55 0.0999656 0.5
64 1 0.574349 0.148646 0.5
65 2 0.6 0.0999656 0.5
66 1 0.624569 0.148907 0.5
67 2 0.65 0.0999656 0.5
68 1 0.675176 0.151076 0.5
69 2 0.7 0.0999656 0.5
70 1 0.725126 0.151771 0.5
71 2 0.75 0.0999656 0.5
72 1 0.775754 0.147851 0.5
73 2 0.8 0.0999656 0.5
74 1 0.828779 0.148221 0.5
75 2 0.85 0.0999656 0.5
76 1 0.877797 0.149882 0.5
77 2 0.9 0.0999656 0.5
78 1 0.927434 0.149911 0.5
79 2 0.95 0.0999656 0.5
80 1 0.975024 0.150049 0.5
81 1 0.998105 0.202365 0.5
82 1 0.0228794 0.248793 0.5
83 1 0.0482987 0.199385 0.5
84 1 0.0718243 0.248767 0.5
85 1 0.0997246 0.200064 0.5
86 1 0.123697 0.248474 0.5
87 1 0.149277 0.196816 0.5
88 1 0.17598 0.249357 0.5
89 1 0.200117 0.199521 0.5
90 1 0.22425 0.250703 0.5
91 1 0.248891 0.201429 0.5
92 1 0.273866 0.251279 0.5
93 1 0.300931 0.201762 0.5
94 1 0.325222 0.249184 0.5
95 1 0.34887 0.200667 0.5
96 1 0.375439 0.249606 0.5
97 1 0.400517 0.199896 0.5
98 1 0.427479 0.253675 0.5
99 1 0.44923 0.199813 0.5
100 1 0.477347 0.251922 0.5
101 1 0.498846 0.200035 0.5
102 1 0.524291 0.249681 0.5
103 1 0.549515 0.197677 0.5
104 1 0.573651 0.246246 0.5
105 1 0.600167 0.199167 0.5
106 1 0.625018 0.249851 0.5
107 1 0.64992 0.196484 0.5
108 1 0.675586 0.244323 0.5
109 1 0.701422 0.198837 0.5
110 1 0.727594 0.247603 0.5
111 1 0.752727 0.197993 0.5
112 1 0.773932 0.246642 0.5
113 1 0.802148 0.19376 0.5
114 1 0.821476 0.244308 0.5
115 1 0.851226 0.198999 0.5
116 1 0.87465 0.252489 0.5
117 1 0.898722 0.198137 0.5
118 1 0.926016 0.248937 0.5
119 1 0.948429 0.200895 0.5
120 1 0.973569 0.253455 0.5
121 1 0.998708 0.301125 0.5
122 1 0.0241222 0.348848 0.5
123 1 0.0471252 0.299096 0.5
124 1 0.0725778 0.349367 0.5
125 1 0.0976655 0.297827 0.5
126 1 0.123371 0.347024 0.5
127 1 0.149482 0.298781 0.5
128 1 0.172811 0.34995 0.5
129 1 0.198108 0.300614 0.5
130 1 0.223589 0.348472 0.5
131 1 0.246021 0.300147 0.5
132 1 0.272252 0.34984 0.5
133 1 0.296223 0.302159 0.5
134 1 0.320471 0.349907 0.5
135 1 0.347091 0.30287 0.5
136 1 0.372093 0.35193 0.5
137 1 0.399205 0.299514 0.5
138 1 0.424133 0.349529 0.5
139 1 0.450899 0.30057 0.5
140 1 0.473607 0.350333 0.5
141 1 0.499401 0.299899 0.5
142 1 0.523479 0.350667 0.5
143 1 0.548416 0.300791 0.5
144 1 0.574908 0.348079 0.5
145 1 0.596809 0.298911 0.5
146 1 0.623746 0.348132 0.5
147 1 0.647471 0.298195 0.5
148 1 0.675488 0.346725 0.5
149 1 0.700581 0.29618 0.5
150 1 0.723386 0.343754 0.5
151 1 0.751291 0.295714 0.5
152 1 0.774083 0.346296 0.5
153 1 0.799834 0.29706 0.5
154 1 0.823253 0.348246 0.5
155 1 0.847183 0.301413 0.5
156 1 0.873945 0.347352 0.5
157 1 0.899503 0.296841 0.5
158 1 0.924419 0.348504 0.5
159 1 0.948388 0.300689 0.5
160 1 0.973732 0.3497 0.5
161 1 0.000578566 0.399001 0.5
162 1 0.0250933 0.450332 0.5
163 1 0.0494993 0.397902 0.5
164 1 0.0745578 0.450808 0.5
165 1 0.0992644 0.395153 0.5
166 1 0.122783 0.448101 0.5
167 1 0.147561 0.398081 0.5
168 1 0.173154 0.444222 0.5
169 1 0.198455 0.395427 0.5
170 1 0.22315 0.449041 0.5
171 1 0.249753 0.397894 0.5
172 1 0.274879 0.447422 0.5
173 1 0.297374 0.400498 0.5
174 1 0.322925 0.447329 0.5
175 1 0.346424 0.399033 0.5
176 1 0.370987 0.449842 0.5
177 1 0.397039 0.400301 0.5
178 1 0.424984 0.448283 0.5
179 1 0.445991 0.398808 0.5
180 1 0.473925 0.446652 0.5
181 1 0.497711 0.398903 0.5
182 1 0.526167 0.445125 0.5
183 1 0.550567 0.396598 0.5
184 1 0.575792 0.445154 0.5
185 1 0.598254 0.398006 0.5
186 1 0.624801 0.445621 0.5
187 1 0.649202 0.396274 0.5
188 1 0.674751 0.441558 0.5
189 1 0.699622 0.396218 0.5
190 1 0.723879 0.445082 0.5
191 1 0.748784 0.39372 0.5
192 1 0.772749 0.446245 0.5
193 1 0.798744 0.396379 0.5
194 1 0.823841 0.446992 0.5
195 1 0.850746 0.397656 0.5
196 1 0.873943 0.447429 0.5
197 1 0.899584 0.397422 0.5
198 1 0.923197 0.446244 0.5
199 1 0.95094 0.398369 0.5
200 1 0.970706 0.448719 0.5
201 1 0.996832 0.496623 0.5
202 1 0.0215269 0.546201 0.5
203 1 0.0492927 0.498266 0.5
204 1 0.0738968 0.546786 0.5
205 1 0.0992798 0.50095 0.5
206 1 0.126753 0.547972 0.5
207 1 0.147814 0.499484 0.5
208 1 0.177368 0.547067 0.5
209 1 0.196421 0.494923 0.5
210 1 0.226133 0.545679 0.5
211 1 0.247755 0.496058 0.5
212 1 0.27578 0.547318 0.5
213 1 0.29664 0.495848 0.5
214 1 0.322207 0.547922 0.5
215 1 0.342511 0.498001 0.5
216 1 0.372279 0.543246 0.5
217 1 0.398312 0.494594 0.5
218 1 0.424313 0.54261 0.5
219 1 0.450061 0.496134 0.5
220 1 0.473541 0.544453 0.5
221 1 0.498812 0.494938 0.5
222 1 0.521518 0.546615 0.5
223 1 0.546851 0.496319 0.5
224 1 0.5727 0.54525 0.5
225 1 0.599937 0.497605 0.5
226 1 0.62293 0.545132 0.5
227 1 0.651137 0.495989 0.5
228 1 0.6757 0.545521 0.5
229 1 0.699836 0.49716 0.5
230 1 0.724581 0.545077 0.5
231 1 0.748519 0.497049 0.5
232 1 0.772328 0.547198 0.5
233 1 0.798259 0.4946 0.5
234 1 0.824134 0.54709 0.5
235 1 0.848153 0.496911 0.5
236 1 0.874405 0.545951 0.5
237 1 0.897474 0.494996 0.5
238 1 0.922758 0.544298 0.5
239 1 0.947689 0.497453 0.5
240 1 0.972677 0.544167 0.5
241 1 0.998968 0.594411 0.5
242 1 0.0259175 0.640863 0.5
243 1 0.0513598 0.595131 0.5
244 1 0.0763879 0.644748 0.5
245 1 0.105273 0.596149 0.5
246 1 0.130494 0.645853 0.5
247 1 0.153757 0.59597 0.5
248 1 0.178228 0.646585 0.5
249 1 0.201983 0.59563 0.5
250 1 0.2268 0.645856 0.5
251 1 0.249754 0.596194 0.5
252 1 0.27523 0.646421 0.5
253 1 0.298546 0.599866 0.5
254 1 0.32808 0.649942 0.5
255 1 0.348506 0.595625 0.5
256 1 0.374406 0.643469 0.5
257 1 0.399422 0.590532 0.5
258 1 0.424569 0.643983 0.5
259 1 0.450602 0.591846 0.5
260 1 0.471828 0.644715 0.5
261 1 0.498339 0.592962 0.5
262 1 0.52228 0.642327 0.5
263 1 0.547966 0.595987 0.5
264 1 0.57295 0.646172 0.5
265 1 0.600659 0.594928 0.5
266 1 0.625005 0.648154 0.5
267 1 0.652396 0.593165 0.5
268 1 0.674575 0.648748 0.5
269 1 0.70152 0.59667 0.5
270 1 0.725338 0.647179 0.5
271 1 0.748324 0.597987 0.5
272 1 0.776506 0.646184 0.5
273 1 0.799654 0.596444 0.5
274 1 0.824392 0.645647 0.5
275 1 0.850501 0.598951 0.5
276 1 0.875604 0.646368 0.5
277 1 0.899136 0.595149 0.5
278 1 0.924968 0.64517 0.5
279 1 0.948258 0.593513 0.5
280 1 0.974437 0.643477 0.5
281 1 0.00136428 0.692222 0.5
282 1 0.0256965 0.744079 0.5
283 1 0.0507211 0.697082 0.5
284 1 0.0743807 0.746477 0.5
285 1 0.102833 0.694456 0.5
286 1 0.124239 0.746679 0.5
287 1 0.15089 0.697229 0.5
288 1 0.174927 0.746358 0.5
289 1 0.199771 0.695067 0.5
290 1 0.226419 0.746136 0.5
291 1 0.24992 0.697983 0.5
292 1 0.276903 0.743384 0.5
293 1 0.300115 0.695636 0.5
294 1 0.325037 0.743954 0.5
295 1 0.350903 0.695787 0.5
296 1 0.376329 0.744625 0.5
297 1 0.401858 0.69394 0.5
298 1 0.425444 0.741897 0.5
299 1 0.450439 0.693566 0.5
300 1 0.477393 0.74193 0.5
301 1 0.498054 0.69272 0.5
302 1 0.525213 0.741227 0.5