LAMMPS (22 Jun 2007)
# 2d indenter simulation

dimension	2
boundary	p s p

atom_style	atomic
neighbor	0.3 bin
neigh_modify	delay 5

# create geometry

lattice		hex 0.9
Lattice spacing in x,y,z = 1.1327 1.96189 1.1327
region		box block 0 20 0 10 -0.25 0.25
create_box	2 box
Created orthogonal box = (0 0 -0.283174) to (22.6539 19.6189 0.283174)
  1 by 1 by 1 processor grid
create_atoms	1 box
Created 420 atoms

mass		1 1.0
mass		2 1.0

# LJ potentials

pair_style	lj/cut 2.5
pair_coeff	* * 1.0 1.0 2.5

# define groups

region	        1 block INF INF INF 1.25 INF INF
group		lower region 1
60 atoms in group lower
group		mobile subtract all lower
360 atoms in group mobile
set		group lower type 2
  60 settings made for type

# initial velocities

compute	  	new mobile temp
velocity	mobile create 0.2 482748 temp new
fix		1 all nve
fix		2 lower setforce 0.0 0.0 0.0
fix		3 all temp/rescale 100 0.1 0.1 0.01 1.0

# indenter

fix		4 all indent 1000.0 sphere 10 13 0 5.0 vel 0.0 -0.02 0.0
fix		5 all enforce2d

# Run with indenter

timestep	0.003
thermo		1000
thermo_modify	temp new

dump		1 all atom 250 dump.indent
run		30000
Memory usage per processor = 1.48849 Mbytes
Step Temp E_pair E_mol TotEng Press Volume 
       0          0.2   -3.1727576            0   -3.0020433   -1.6911656    251.71282 
    1000   0.11979027   -3.0878285            0   -2.9855789 -0.043690155    249.58001 
    2000   0.12095292   -3.0888211            0   -2.9855791  -0.46999358     251.6098 
    3000    0.1167364   -3.0841547            0   -2.9845118  -0.41054969     250.8041 
    4000   0.12249143   -3.1004175            0   -2.9958623 -0.060853986    248.47717 
    5000   0.10957873   -3.0886367            0   -2.9951034  -0.57642649    251.31708 
    6000   0.12346008   -3.0985964            0   -2.9932144 -0.072968634    250.46216 
    7000   0.10994736   -3.0850721            0   -2.9912241  -0.20324168    251.37979 
    8000   0.11557891    -3.086042            0   -2.9873871   0.22717975    249.49714 
    9000   0.12016755    -3.084536            0   -2.9819645   0.33218396    248.89256 
   10000   0.12659552   -3.0852403            0    -2.977182   0.40666454    249.67836 
   11000   0.12524777   -3.0736607            0   -2.9667528   0.77561215    248.69926 
   12000   0.11844672   -3.0571177            0   -2.9560149   0.77334207      249.761 
   13000   0.12031568   -3.0583679            0   -2.9556699    1.2700141    247.59077 
   14000    0.1167364   -3.0548463            0   -2.9552034    1.0859392    250.18904 
   15000    0.1167364   -3.0549235            0   -2.9552806    1.2995977    251.78491 
   16000   0.12471787    -3.052462            0   -2.9460064    1.6452635     249.6633 
   17000   0.12078157   -3.0356475            0   -2.9325518    1.9172375    248.00711 
   18000   0.11737994   -3.0294796            0   -2.9292875    1.9843025    254.03122 
   19000   0.12273197   -3.0164916            0   -2.9117311    1.9954742    251.85884 
   20000   0.12550408   -3.0011898            0   -2.8940631    1.7797399    260.26067 
   21000   0.12037501   -2.9934263            0   -2.8906776    1.3696917    269.06397 
   22000   0.12162743   -3.0189597            0    -2.915142   0.94374419    270.04306 
   23000   0.12776221    -3.014535            0   -2.9054808    1.2153386     265.8958 
   24000   0.11979685   -3.0134458            0   -2.9111906   0.89485554    268.14394 
   25000   0.11773527   -3.0139293            0   -2.9134338    1.2205547    265.85247 
   26000   0.11595173    -3.011762            0   -2.9127889    1.2078938    267.16085 
   27000   0.10753964   -3.0014495            0   -2.9096567    1.4229122    268.95365 
   28000   0.11767852   -2.9951691            0   -2.8947221     1.567606    268.30745 
   29000   0.12218823   -2.9866761            0   -2.8823797    1.8143642    268.73044 
   30000   0.12014202   -2.9700786            0   -2.8675288    2.1489569    268.11801 
Loop time of 6.39083 on 1 procs for 30000 steps with 420 atoms

Pair  time (%) = 5.14164 (80.4534)
Neigh time (%) = 0.139093 (2.17645)
Comm  time (%) = 0.0886552 (1.38723)
Outpt time (%) = 0.0423741 (0.663046)
Other time (%) = 0.979067 (15.3199)

Nlocal:    420 ave 420 max 420 min
Histogram: 1 0 0 0 0 0 0 0 0 0
Nghost:    111 ave 111 max 111 min
Histogram: 1 0 0 0 0 0 0 0 0 0
Neighs:    3724 ave 3724 max 3724 min
Histogram: 1 0 0 0 0 0 0 0 0 0

Total # of neighbors = 3724
Ave neighs/atom = 8.86667
Neighbor list builds = 610
Dangerous builds = 0

# Run without indenter

unfix           4
run		30000
Memory usage per processor = 1.48849 Mbytes
Step Temp E_pair E_mol TotEng Press Volume 
   30000   0.12014202   -2.9700786            0   -2.8675288    2.1521398    267.72148 
   31000   0.11774606   -3.0484862            0   -2.9479816  -0.65503256    273.31448 
   32000   0.12832139   -3.0455898            0   -2.9360583  -0.73956965    273.65905 
   33000   0.11950093   -3.0381409            0   -2.9361383   0.23770925    268.19771 
   34000   0.11464398   -3.0335237            0   -2.9356669  -0.76027235    275.12792 
   35000   0.11794739   -3.0369301            0   -2.9362536  -0.22978471    270.99117 
   36000   0.11162003   -3.0457418            0   -2.9504661 -0.018940036     273.0896 
   37000   0.10628247   -3.0411834            0   -2.9504638  -0.50040267    271.78323 
   38000   0.12552496   -3.0457933            0   -2.9386488  -0.14233044    269.65559 
   39000   0.11559005   -3.0786506            0   -2.9799862  -0.61694923    263.44894 
   40000   0.11765895   -3.0804157            0   -2.9799854  -0.24563109    263.42849 
   41000   0.11922246   -3.0817536            0   -2.9799888  -0.39992707    263.40129 
   42000    0.1117089   -3.0753366            0   -2.9799851  -0.42198331    264.66186 
   43000   0.11462221   -3.0778262            0   -2.9799879  -0.11839847    262.61394 
   44000   0.11977936   -3.0822272            0   -2.9799869  -0.53471678    263.61075 
   45000   0.11935674   -3.0818659            0   -2.9799864  -0.39825369    264.10447 
   46000    0.1167364   -3.0910505            0   -2.9914077  -0.38659538    262.18853 
   47000   0.11274392   -3.0748261            0   -2.9785911  -0.55233735    263.93798 
   48000   0.11759703   -3.0790089            0   -2.9786315  -0.42794244    264.39363 
   49000   0.11919204   -3.0803689            0     -2.97863  -0.36630586    263.55807 
   50000   0.11454347   -3.0764003            0   -2.9786292  -0.31011631    263.46581 
   51000   0.11499812   -3.0767863            0   -2.9786272  -0.24887436     264.1358 
   52000   0.11794735   -3.0793077            0   -2.9786312   -0.3827729    263.56378 
   53000   0.11644214   -3.0780207            0   -2.9786291  -0.39478205     263.4716 
   54000   0.11362324   -3.0756128            0   -2.9786273  -0.33268387    263.33932 
   55000   0.12191965   -3.0717155            0   -2.9676483  -0.34225317    264.41294 
   56000   0.12228104   -3.0850328            0   -2.9806572  -0.45728165    263.41334 
   57000   0.11846744   -3.0817769            0   -2.9806565  -0.37927018    262.37742 
   58000   0.12649071   -3.0773228            0   -2.9693539   -0.4320707    263.89804 
   59000   0.12188445   -3.0733901            0    -2.969353  -0.35275278    263.98681 
   60000   0.12061868   -3.0723082            0   -2.9693515  -0.24520802    262.98663 
Loop time of 6.18357 on 1 procs for 30000 steps with 420 atoms

Pair  time (%) = 5.12197 (82.8319)
Neigh time (%) = 0.145579 (2.35428)
Comm  time (%) = 0.090281 (1.46001)
Outpt time (%) = 0.0419242 (0.677994)
Other time (%) = 0.783816 (12.6758)

Nlocal:    420 ave 420 max 420 min
Histogram: 1 0 0 0 0 0 0 0 0 0
Nghost:    107 ave 107 max 107 min
Histogram: 1 0 0 0 0 0 0 0 0 0
Neighs:    3566 ave 3566 max 3566 min
Histogram: 1 0 0 0 0 0 0 0 0 0

Total # of neighbors = 3566
Ave neighs/atom = 8.49048
Neighbor list builds = 634
Dangerous builds = 0
